version 3
run General-0-20240601-13:13:03-15766
attr configname General
attr datetime 20240601-13:13:03
attr datetimef 20240601-131303
attr experiment General
attr inifile omnetpp.ini
attr iterationvars ""
attr iterationvarsd ""
attr iterationvarsf ""
attr measurement ""
attr network Network
attr processid 15766
attr repetition 0
attr replication #0
attr resultdir results
attr runnumber 0
attr seedset 0
config network Network
config sim-time-limit 200s
config Network.node[{0,2}].app.interArrivalTime exponential(1)
config Network.node[{0,2}].app.packetByteSize 125000
config Network.node[{0,2}].app.destination 5
config Network.node[{0,2}].net.destination 5

vector 0 Network.node[0].app "Packets Generated" ETV
vector 1 Network.node[1].app "Packets Generated" ETV
vector 2 Network.node[2].app "Packets Generated" ETV
vector 3 Network.node[3].app "Packets Generated" ETV
vector 4 Network.node[4].app "Packets Generated" ETV
vector 5 Network.node[5].app "Packets Generated" ETV
vector 6 Network.node[6].app "Packets Generated" ETV
vector 7 Network.node[7].app "Packets Generated" ETV
vector 8 Network.node[0].lnk[0] "Buffer Size" ETV
vector 9 Network.node[0].lnk[1] "Buffer Size" ETV
vector 10 Network.node[1].lnk[0] "Buffer Size" ETV
vector 11 Network.node[1].lnk[1] "Buffer Size" ETV
vector 12 Network.node[2].lnk[0] "Buffer Size" ETV
vector 13 Network.node[2].lnk[1] "Buffer Size" ETV
vector 14 Network.node[3].lnk[0] "Buffer Size" ETV
vector 15 Network.node[3].lnk[1] "Buffer Size" ETV
vector 16 Network.node[4].lnk[0] "Buffer Size" ETV
vector 17 Network.node[4].lnk[1] "Buffer Size" ETV
vector 18 Network.node[5].lnk[0] "Buffer Size" ETV
vector 19 Network.node[5].lnk[1] "Buffer Size" ETV
vector 20 Network.node[6].lnk[0] "Buffer Size" ETV
vector 21 Network.node[6].lnk[1] "Buffer Size" ETV
vector 22 Network.node[7].lnk[0] "Buffer Size" ETV
vector 23 Network.node[7].lnk[1] "Buffer Size" ETV
vector 24 Network.node[5].app Delay ETV
0	0	0	0
0	641	0.898560388484	1
0	645	1.821783519955	2
0	675	3.773328855839	3
0	698	4.324377342509	4
0	723	5.301383768902	5
0	745	5.786511932624	6
0	755	6.139671071762	7
0	758	6.198055740855	8
0	851	9.512968020783	9
0	899	11.081864138406	10
0	929	11.834538251719	11
0	957	12.673971104619	12
0	1016	14.482340368894	13
0	1020	14.556025724359	14
0	1023	14.967603720602	15
0	1026	15.058764746726	16
0	1070	16.103377255034	17
0	1162	19.25354718371	18
0	1224	21.294439399622	19
0	1251	21.9361485723	20
0	1296	23.541388129362	21
0	1322	25.155390204255	22
0	1338	25.890354625445	23
0	1355	27.026293567155	24
0	1368	27.152167976593	25
0	1417	28.427395678817	26
0	1420	28.582125359317	27
0	1454	29.352960017784	28
0	1485	30.774324697878	29
0	1511	31.512151989634	30
0	1514	31.624098150267	31
0	1535	32.159663870495	32
0	1542	32.466944222648	33
0	1548	32.673147504678	34
0	1580	34.008437689302	35
0	1604	34.617520112485	36
0	1607	34.762798139777	37
0	1610	34.781766708978	38
0	1641	35.173537519655	39
0	1664	36.134918458721	40
0	1684	36.386360390796	41
0	1687	36.874917440104	42
0	1780	39.752832461382	43
0	1811	40.3505785382	44
0	1817	40.796097033251	45
0	1848	41.370629439992	46
0	1919	43.696980501686	47
0	1950	44.795892969237	48
0	1981	45.854727100725	49
0	2022	46.965324546412	50
0	2034	47.10335323484	51
0	2080	48.492395924631	52
0	2096	48.944497984856	53
0	2136	49.788925778384	54
0	2274	54.24342262456	55
0	2277	54.477724143336	56
0	2314	55.485743388756	57
0	2359	56.54448610385	58
0	2376	57.416401957476	59
0	2393	57.708482490743	60
0	2410	58.243547167826	61
0	2427	58.871488748817	62
0	2444	59.51526975042	63
0	2461	59.795546758899	64
0	2496	60.77241083297	65
0	2519	61.184912062892	66
0	2553	62.252984260042	67
0	2556	62.401696529294	68
0	2607	63.908331862567	69
0	2624	64.368345820307	70
0	2655	65.454615201185	71
0	2726	67.174946858902	72
0	2757	68.294761224656	73
0	2760	68.395795999965	74
0	2864	71.969384372309	75
0	2923	74.074705673101	76
0	2926	74.132032599525	77
0	2953	75.060511096426	78
0	2984	75.660457983067	79
0	3010	77.004703255219	80
0	3013	77.024893383365	81
0	3016	77.064869682423	82
0	3041	77.64774807129	83
0	3167	81.539318194135	84
0	3170	82.074202569892	85
0	3266	84.578114352977	86
0	3300	85.410957869043	87
0	3371	87.41419839155	88
0	3374	87.512848699968	89
0	3436	90.053153207927	90
0	3439	90.139923690267	91
0	3541	92.789179618943	92
0	3544	92.930510332504	93
0	3575	93.972290986683	94
0	3623	95.232224796792	95
0	3640	95.573878963818	96
0	3643	95.88139668758	97
0	3649	96.083747126147	98
0	3683	96.966876168106	99
0	3686	96.987188626902	100
0	3703	97.167440878887	101
0	3760	98.9331819513	102
0	3797	99.776264983448	103
0	3834	101.105022857198	104
0	3865	101.672927010678	105
0	3868	101.958947983186	106
0	3913	103.36997239248	107
0	3944	104.228365360309	108
0	3964	104.732709166897	109
0	4029	106.996442742758	110
0	4049	107.248862735649	111
0	4139	110.301144392533	112
0	4159	110.893768419985	113
0	4221	112.767228299842	114
0	4252	113.969466867089	115
0	4255	114.092993514451	116
0	4286	114.446013647725	117
0	4320	115.902832206289	118
0	4351	116.433554702906	119
0	4357	116.938573450661	120
0	4425	119.068072846729	121
0	4501	121.202903296712	122
0	4532	122.382286230357	123
0	4566	123.270147640794	124
0	4600	124.34798252493	125
0	4620	125.109850296226	126
0	4637	125.371907537901	127
0	4682	126.404704548546	128
0	4685	126.907015346807	129
0	4716	127.458411336941	130
0	4746	128.422864902435	131
0	4760	129.066969610758	132
0	4784	129.425896826628	133
0	4814	130.505217025284	134
0	4834	130.847816649982	135
0	4868	131.810191705753	136
0	4885	132.370152775827	137
0	4962	134.477600380777	138
0	4996	135.371329459083	139
0	5033	136.225409194726	140
0	5149	139.697944674008	141
0	5152	139.850238299262	142
0	5169	140.30841118322	143
0	5172	140.410731798073	144
0	5189	140.983193349501	145
0	5313	145.121003110011	146
0	5347	145.891079969557	147
0	5364	146.485153467881	148
0	5370	146.59076611151	149
0	5455	149.110048241593	150
0	5514	150.94978102667	151
0	5517	151.111651113382	152
0	5590	153.461828403133	153
0	5649	155.487737220236	154
0	5652	155.526020133121	155
0	5672	155.703345708266	156
0	5709	156.659312132188	157
0	5757	158.169135587797	158
0	5819	160.171122083323	159
0	5839	160.70112496146	160
0	5842	160.851915971654	161
0	5868	161.374786001742	162
0	5899	162.570224568024	163
0	5916	163.037497134434	164
0	5933	163.641796206282	165
0	5964	164.186653334427	166
0	6001	165.466987538239	167
0	6018	165.921899383031	168
0	6134	169.631859974935	169
0	6151	170.078112795454	170
0	6244	172.962724547556	171
0	6247	173.151019522775	172
0	6264	173.565632065434	173
0	6298	174.301763165421	174
0	6304	174.35763321831	175
0	6307	174.580772426411	176
0	6330	174.77860193387	177
0	6384	176.357014655976	178
0	6401	176.780671757333	179
0	6491	179.66521604574	180
0	6511	180.602354763463	181
0	6542	181.510318790788	182
0	6545	181.542675595433	183
0	6599	183.0735068217	184
0	6602	183.125189727495	185
0	6636	183.986113364176	186
0	6653	184.257781434518	187
0	6794	189.136914322512	188
0	6825	189.903993977084	189
0	6890	191.901165944574	190
0	6938	193.210951315936	191
0	6941	193.584837811839	192
0	6972	194.392817865238	193
0	6989	194.900682987925	194
0	6992	195.139435860773	195
0	7009	195.374960434192	196
0	7015	195.626559047305	197
0	7035	195.873418316104	198
0	7066	196.716397091518	199
0	7097	198.061744524752	200
0	7127	198.663423511276	201
1	0	0	0
2	0	0	0
2	648	1.859604212075	1
2	657	2.646805352057	2
2	701	4.52576940626	3
2	731	5.563928706924	4
2	752	6.139447903807	5
2	813	8.362972325843	6
2	826	8.681328466685	7
2	843	9.164930571633	8
2	872	9.814376919884	9
2	917	11.486588120209	10
2	937	12.14047068743	11
2	954	12.639342696446	12
2	1038	15.237596782295	13
2	1041	15.258022370694	14
2	1063	15.717270507949	15
2	1125	17.504758171388	16
2	1156	19.010542430025	17
2	1159	19.16177328369	18
2	1221	21.202087541632	19
2	1318	25.047309410774	20
2	1335	25.666238870401	21
2	1381	27.182774844391	22
2	1413	28.20420671874	23
2	1427	29.076527913782	24
2	1517	31.970948391769	25
2	1545	32.6126430938	26
2	1583	34.100897919552	27
2	1601	34.344946410289	28
2	1644	35.185281115901	29
2	1647	35.347417605347	30
2	1681	36.294414282522	31
2	1718	37.25396225989	32
2	1777	39.582875634104	33
2	1814	40.728014588804	34
2	1851	41.677509172301	35
2	1882	42.873616971758	36
2	1885	42.978178197533	37
2	1888	43.040293487999	38
2	2012	46.540507172454	39
2	2016	46.727933238472	40
2	2019	46.964139944555	41
2	2051	47.407543973176	42
2	2059	47.786505937459	43
2	2093	48.72256749723	44
2	2099	49.115680054534	45
2	2102	49.154863210947	46
2	2133	49.732187521754	47
2	2167	50.738058526921	48
2	2254	53.931005168975	49
2	2257	54.038640277131	50
2	2294	55.096466690483	51
2	2311	55.272380235909	52
2	2492	60.632480586152	53
2	2499	60.805608042298	54
2	2502	60.92256345209	55
2	2536	62.045731753623	56
2	2559	62.427287596997	57
2	2576	62.646168193504	58
2	2672	65.633358085356	59
2	2675	65.647022663787	60
2	2678	65.749167545312	61
2	2709	66.724269479468	62
2	2763	68.544088398752	63
2	2881	72.293119858336	64
2	2894	72.925456454732	65
2	2920	73.638040048065	66
2	3037	77.399967332569	67
2	3044	77.732377573533	68
2	3047	77.860434338844	69
2	3064	78.305853800764	70
2	3072	78.657029890145	71
2	3089	79.312676174509	72
2	3102	79.439064810934	73
2	3133	80.605938337483	74
2	3136	80.988639286345	75
2	3201	83.112876483347	76
2	3218	83.179173884829	77
2	3235	83.423569332911	78
2	3269	84.602758859976	79
2	3303	85.438856391946	80
2	3306	85.747271232044	81
2	3337	86.458519169261	82
2	3354	87.199278119708	83
2	3433	89.684860476685	84
2	3470	90.542756117759	85
2	3473	90.868096533288	86
2	3490	91.251656747387	87
2	3493	91.261057498051	88
2	3524	92.361903408142	89
2	3592	94.209231059144	90
2	3646	96.050513530631	91
2	3680	96.557713653888	92
2	3706	97.362511053689	93
2	3723	97.824241949733	94
2	3726	97.828948490225	95
2	3729	97.987289996456	96
2	3763	99.119924138428	97
2	3794	99.434645799283	98
2	3828	100.65115445272	99
2	3831	100.991501190955	100
2	3947	104.26664436867	101
2	3981	105.163235239456	102
2	3998	106.01245605102	103
2	4032	107.031114781039	104
2	4108	109.252621679513	105
2	4142	110.392229643046	106
2	4162	110.988609037376	107
2	4289	114.83161562062	108
2	4354	116.512537825166	109
2	4388	117.63781984201	110
2	4391	117.92523031808	111
2	4422	118.795766144406	112
2	4442	119.171504986813	113
2	4549	122.535875439864	114
2	4583	123.827784708665	115
2	4617	124.523584169565	116
2	4719	127.649052527223	117
2	4749	128.58145540763	118
2	4752	128.600835188978	119
2	4777	129.235962904609	120
2	4811	130.495006421873	121
2	4831	130.834671154455	122
2	4851	131.318306841044	123
2	4902	132.701286047581	124
2	4905	132.846860026029	125
2	4908	132.955407124524	126
2	4925	133.309631256769	127
2	4928	133.406554011346	128
2	4959	134.250442483937	129
2	4979	134.687470497711	130
2	4999	135.49002248347	131
2	5002	135.524225901828	132
2	5036	136.583235287209	133
2	5067	137.639084895869	134
2	5084	138.026214988018	135
2	5101	138.590825489139	136
2	5118	138.840906984117	137
2	5192	141.109540976809	138
2	5265	143.334455634034	139
2	5268	143.636021547257	140
2	5330	145.276919125184	141
2	5367	146.493938620521	142
2	5373	146.598820456121	143
2	5390	147.033166112065	144
2	5435	148.285773636977	145
2	5452	148.9192362547	146
2	5669	155.684626774637	147
2	5689	156.394544701861	148
2	5692	156.577083303744	149
2	5712	156.709267013359	150
2	5760	158.593195899945	151
2	5822	160.239915001272	152
2	5845	161.081795963004	153
2	5848	161.115582748556	154
2	5865	161.187258132869	155
2	5995	165.237104971674	156
2	5998	165.289017523857	157
2	6063	167.301790260063	158
2	6066	167.318558026055	159
2	6125	169.255135263546	160
2	6128	169.517464572712	161
2	6131	169.52924780463	162
2	6182	170.977041886618	163
2	6227	172.286340250641	164
2	6281	173.672631602662	165
2	6301	174.345092119496	166
2	6324	174.759071042169	167
2	6327	174.77776651259	168
2	6333	174.965285463793	169
2	6350	175.587882807771	170
2	6367	175.841388512914	171
2	6432	177.917419573357	172
2	6508	180.549638435906	173
2	6562	181.768435239249	174
2	6565	181.948392580801	175
2	6582	182.641592350339	176
2	6619	183.613074508434	177
2	6670	184.814045414976	178
2	6743	187.535393670889	179
2	6760	187.846361475859	180
2	6791	188.798191183401	181
2	6828	189.934787678658	182
2	6859	190.826166255568	183
2	6907	192.215843319344	184
2	7012	195.553777653198	185
2	7032	195.759809701681	186
2	7114	198.64888529358	187
2	7144	199.323129863216	188
2	7147	199.581142627156	189
3	0	0	0
4	0	0	0
5	0	0	0
6	0	0	0
7	0	0	0
8	1	0	1
8	17	0	0
8	83	0.0011	1
8	99	0.0011	0
8	165	0.0022	1
8	181	0.0022	0
8	247	0.0033	1
8	263	0.0033	0
8	329	0.0044	1
8	345	0.0044	0
8	411	0.0055	1
8	427	0.0055	0
8	493	0.0066	1
8	509	0.0066	0
8	575	0.0077	1
8	591	0.0077	0
8	643	0.898560388484	1
8	644	0.898560388484	0
8	647	1.821783519955	1
8	652	1.898560388484	0
8	677	3.773328855839	1
8	678	3.773328855839	0
8	700	4.324377342509	1
8	705	4.773328855839	0
8	725	5.301383768902	1
8	735	5.773328855839	0
8	747	5.786511932624	1
8	757	6.139671071762	2
8	760	6.198055740855	3
8	771	6.773328855839	2
8	799	7.773328855839	1
8	829	8.773328855839	0
8	853	9.512968020783	1
8	858	9.773328855839	0
8	901	11.081864138406	1
8	902	11.081864138406	0
8	931	11.834538251719	1
8	932	12.081864138406	0
8	959	12.673971104619	1
8	964	13.081864138406	0
8	1018	14.482340368894	1
8	1019	14.482340368894	0
8	1022	14.556025724359	1
8	1025	14.967603720602	2
8	1028	15.058764746726	3
8	1058	15.482340368894	2
8	1072	16.103377255034	3
8	1087	16.482340368894	2
8	1111	17.482340368894	1
8	1142	18.482340368894	0
8	1164	19.25354718371	1
8	1179	19.482340368894	0
8	1226	21.294439399622	1
8	1227	21.294439399622	0
8	1253	21.9361485723	1
8	1254	22.294439399622	0
8	1298	23.541388129362	1
8	1299	23.541388129362	0
8	1324	25.155390204255	1
8	1325	25.155390204255	0
8	1340	25.890354625445	1
8	1346	26.155390204255	0
8	1357	27.026293567155	1
8	1370	27.152167976593	2
8	1371	27.155390204255	1
8	1394	28.155390204255	0
8	1419	28.427395678817	1
8	1422	28.582125359317	2
8	1430	29.155390204255	1
8	1456	29.352960017784	2
8	1457	30.155390204255	1
8	1487	30.774324697878	2
8	1488	31.155390204255	1
8	1513	31.512151989634	2
8	1516	31.624098150267	3
8	1521	32.155390204255	2
8	1537	32.159663870495	3
8	1544	32.466944222648	4
8	1550	32.673147504678	5
8	1556	33.155390204255	4
8	1582	34.008437689302	5
8	1587	34.155390204255	4
8	1606	34.617520112485	5
8	1609	34.762798139777	6
8	1612	34.781766708978	7
8	1627	35.155390204255	6
8	1643	35.173537519655	7
8	1666	36.134918458721	8
8	1667	36.155390204255	7
8	1686	36.386360390796	8
8	1689	36.874917440104	9
8	1704	37.155390204255	8
8	1735	38.155390204255	7
8	1763	39.155390204255	6
8	1782	39.752832461382	7
8	1797	40.155390204255	6
8	1813	40.3505785382	7
8	1819	40.796097033251	8
8	1834	41.155390204255	7
8	1850	41.370629439992	8
8	1868	42.155390204255	7
8	1905	43.155390204255	6
8	1921	43.696980501686	7
8	1936	44.155390204255	6
8	1952	44.795892969237	7
8	1967	45.155390204255	6
8	1983	45.854727100725	7
8	1998	46.155390204255	6
8	2024	46.965324546412	7
8	2036	47.10335323484	8
8	2037	47.155390204255	7
8	2066	48.155390204255	6
8	2082	48.492395924631	7
8	2098	48.944497984856	8
8	2105	49.155390204255	7
8	2138	49.788925778384	8
8	2139	50.155390204255	7
8	2170	51.155390204255	6
8	2198	52.155390204255	5
8	2226	53.155390204255	4
8	2260	54.155390204255	3
8	2276	54.24342262456	4
8	2279	54.477724143336	5
8	2297	55.155390204255	4
8	2316	55.485743388756	5
8	2331	56.155390204255	4
8	2361	56.54448610385	5
8	2362	57.155390204255	4
8	2378	57.416401957476	5
8	2395	57.708482490743	6
8	2396	58.155390204255	5
8	2412	58.243547167826	6
8	2429	58.871488748817	7
8	2430	59.155390204255	6
8	2446	59.51526975042	7
8	2463	59.795546758899	8
8	2464	60.155390204255	7
8	2498	60.77241083297	8
8	2505	61.155390204255	7
8	2521	61.184912062892	8
8	2539	62.155390204255	7
8	2555	62.252984260042	8
8	2558	62.401696529294	9
8	2579	63.155390204255	8
8	2609	63.908331862567	9
8	2610	64.155390204255	8
8	2626	64.368345820307	9
8	2641	65.155390204255	8
8	2657	65.454615201185	9
8	2681	66.155390204255	8
8	2712	67.155390204255	7
8	2728	67.174946858902	8
8	2743	68.155390204255	7
8	2759	68.294761224656	8
8	2762	68.395795999965	9
8	2780	69.155390204255	8
8	2808	70.155390204255	7
8	2836	71.155390204255	6
8	2866	71.969384372309	7
8	2867	72.155390204255	6
8	2897	73.155390204255	5
8	2925	74.074705673101	6
8	2928	74.132032599525	7
8	2929	74.155390204255	6
8	2955	75.060511096426	7
8	2956	75.155390204255	6
8	2986	75.660457983067	7
8	2987	76.155390204255	6
8	3012	77.004703255219	7
8	3015	77.024893383365	8
8	3018	77.064869682423	9
8	3019	77.155390204255	8
8	3043	77.64774807129	9
8	3050	78.155390204255	8
8	3075	79.155390204255	7
8	3105	80.155390204255	6
8	3139	81.155390204255	5
8	3169	81.539318194135	6
8	3172	82.074202569892	7
8	3173	82.155390204255	6
8	3204	83.155390204255	5
8	3238	84.155390204255	4
8	3268	84.578114352977	5
8	3272	85.155390204255	4
8	3302	85.410957869043	5
8	3309	86.155390204255	4
8	3340	87.155390204255	3
8	3373	87.41419839155	4
8	3376	87.512848699968	5
8	3377	88.155390204255	4
8	3405	89.155390204255	3
8	3438	90.053153207927	4
8	3441	90.139923690267	5
8	3442	90.155390204255	4
8	3476	91.155390204255	3
8	3510	92.155390204255	2
8	3543	92.789179618943	3
8	3546	92.930510332504	4
8	3547	93.155390204255	3
8	3577	93.972290986683	4
8	3578	94.155390204255	3
8	3609	95.155390204255	2
8	3625	95.232224796792	3
8	3642	95.573878963818	4
8	3645	95.88139668758	5
8	3651	96.083747126147	6
8	3652	96.155390204255	5
8	3685	96.966876168106	6
8	3688	96.987188626902	7
8	3689	97.155390204255	6
8	3705	97.167440878887	7
8	3732	98.155390204255	6
8	3762	98.9331819513	7
8	3766	99.155390204255	6
8	3799	99.776264983448	7
8	3800	100.155390204255	6
8	3836	101.105022857198	7
8	3837	101.155390204255	6
8	3867	101.672927010678	7
8	3870	101.958947983186	8
8	3871	102.155390204255	7
8	3899	103.155390204255	6
8	3915	103.36997239248	7
8	3930	104.155390204255	6
8	3946	104.228365360309	7
8	3966	104.732709166897	8
8	3967	105.155390204255	7
8	4001	106.155390204255	6
8	4031	106.996442742758	7
8	4035	107.155390204255	6
8	4051	107.248862735649	7
8	4066	108.155390204255	6
8	4094	109.155390204255	5
8	4125	110.155390204255	4
8	4141	110.301144392533	5
8	4161	110.893768419985	6
8	4165	111.155390204255	5
8	4193	112.155390204255	4
8	4223	112.767228299842	5
8	4224	113.155390204255	4
8	4254	113.969466867089	5
8	4257	114.092993514451	6
8	4258	114.155390204255	5
8	4288	114.446013647725	6
8	4292	115.155390204255	5
8	4322	115.902832206289	6
8	4323	116.155390204255	5
8	4353	116.433554702906	6
8	4359	116.938573450661	7
8	4360	117.155390204255	6
8	4394	118.155390204255	5
8	4427	119.068072846729	6
8	4428	119.155390204255	5
8	4459	120.155390204255	4
8	4487	121.155390204255	3
8	4503	121.202903296712	4
8	4518	122.155390204255	3
8	4534	122.382286230357	4
8	4552	123.155390204255	3
8	4568	123.270147640794	4
8	4586	124.155390204255	3
8	4602	124.34798252493	4
8	4622	125.109850296226	5
8	4623	125.155390204255	4
8	4639	125.371907537901	5
8	4654	126.155390204255	4
8	4684	126.404704548546	5
8	4687	126.907015346807	6
8	4688	127.155390204255	5
8	4718	127.458411336941	6
8	4723	128.155390204255	5
8	4748	128.422864902435	6
8	4762	129.066969610758	7
8	4763	129.155390204255	6
8	4786	129.425896826628	7
8	4797	130.155390204255	6
8	4816	130.505217025284	7
8	4836	130.847816649982	8
8	4837	131.155390204255	7
8	4870	131.810191705753	8
8	4871	132.155390204255	7
8	4887	132.370152775827	8
8	4911	133.155390204255	7
8	4945	134.155390204255	6
8	4964	134.477600380777	7
8	4982	135.155390204255	6
8	4998	135.371329459083	7
8	5019	136.155390204255	6
8	5035	136.225409194726	7
8	5053	137.155390204255	6
8	5087	138.155390204255	5
8	5121	139.155390204255	4
8	5151	139.697944674008	5
8	5154	139.850238299262	6
8	5155	140.155390204255	5
8	5171	140.30841118322	6
8	5174	140.410731798073	7
8	5191	140.983193349501	8
8	5195	141.155390204255	7
8	5223	142.155390204255	6
8	5251	143.155390204255	5
8	5285	144.155390204255	4
8	5315	145.121003110011	5
8	5316	145.155390204255	4
8	5349	145.891079969557	5
8	5350	146.155390204255	4
8	5366	146.485153467881	5
8	5372	146.59076611151	6
8	5393	147.155390204255	5
8	5421	148.155390204255	4
8	5457	149.110048241593	5
8	5458	149.155390204255	4
8	5486	150.155390204255	3
8	5516	150.94978102667	4
8	5519	151.111651113382	5
8	5520	151.155390204255	4
8	5548	152.155390204255	3
8	5576	153.155390204255	2
8	5592	153.461828403133	3
8	5607	154.155390204255	2
8	5635	155.155390204255	1
8	5651	155.487737220236	2
8	5654	155.526020133121	3
8	5674	155.703345708266	4
8	5675	156.155390204255	3
8	5711	156.659312132188	4
8	5715	157.155390204255	3
8	5743	158.155390204255	2
8	5759	158.169135587797	3
8	5777	159.155390204255	2
8	5805	160.155390204255	1
8	5821	160.171122083323	2
8	5841	160.70112496146	3
8	5844	160.851915971654	4
8	5851	161.155390204255	3
8	5870	161.374786001742	4
8	5885	162.155390204255	3
8	5901	162.570224568024	4
8	5918	163.037497134434	5
8	5919	163.155390204255	4
8	5935	163.641796206282	5
8	5950	164.155390204255	4
8	5966	164.186653334427	5
8	5981	165.155390204255	4
8	6003	165.466987538239	5
8	6020	165.921899383031	6
8	6021	166.155390204255	5
8	6049	167.155390204255	4
8	6083	168.155390204255	3
8	6111	169.155390204255	2
8	6136	169.631859974935	3
8	6153	170.078112795454	4
8	6154	170.155390204255	3
8	6185	171.155390204255	2
8	6213	172.155390204255	1
8	6246	172.962724547556	2
8	6249	173.151019522775	3
8	6250	173.155390204255	2
8	6266	173.565632065434	3
8	6284	174.155390204255	2
8	6300	174.301763165421	3
8	6306	174.35763321831	4
8	6309	174.580772426411	5
8	6332	174.77860193387	6
8	6336	175.155390204255	5
8	6370	176.155390204255	4
8	6386	176.357014655976	5
8	6403	176.780671757333	6
8	6404	177.155390204255	5
8	6435	178.155390204255	4
8	6463	179.155390204255	3
8	6493	179.66521604574	4
8	6494	180.155390204255	3
8	6513	180.602354763463	4
8	6528	181.155390204255	3
8	6544	181.510318790788	4
8	6547	181.542675595433	5
8	6568	182.155390204255	4
8	6601	183.0735068217	5
8	6604	183.125189727495	6
8	6605	183.155390204255	5
8	6638	183.986113364176	6
8	6639	184.155390204255	5
8	6655	184.257781434518	6
8	6673	185.155390204255	5
8	6701	186.155390204255	4
8	6729	187.155390204255	3
8	6763	188.155390204255	2
8	6796	189.136914322512	3
8	6797	189.155390204255	2
8	6827	189.903993977084	3
8	6831	190.155390204255	2
8	6862	191.155390204255	1
8	6892	191.901165944574	2
8	6893	192.155390204255	1
8	6924	193.155390204255	0
8	6940	193.210951315936	1
8	6943	193.584837811839	2
8	6958	194.155390204255	1
8	6974	194.392817865238	2
8	6991	194.900682987925	3
8	6994	195.139435860773	4
8	6995	195.155390204255	3
8	7011	195.374960434192	4
8	7017	195.626559047305	5
8	7037	195.873418316104	6
8	7038	196.155390204255	5
8	7068	196.716397091518	6
8	7069	197.155390204255	5
8	7099	198.061744524752	6
8	7100	198.155390204255	5
8	7129	198.663423511276	6
8	7130	199.155390204255	5
9	2	0	1
9	18	0	0
9	96	0.0011	1
9	112	0.0011	0
9	174	0.0022	1
9	190	0.0022	0
9	252	0.0033	1
9	268	0.0033	0
9	330	0.0044	1
9	346	0.0044	0
9	408	0.0055	1
9	424	0.0055	0
9	486	0.0066	1
9	502	0.0066	0
9	564	0.0077	1
9	580	0.0077	0
10	3	0	1
10	19	0	0
10	85	0.0011	1
10	101	0.0011	0
10	167	0.0022	1
10	183	0.0022	0
10	249	0.0033	1
10	265	0.0033	0
10	331	0.0044	1
10	347	0.0044	0
10	413	0.0055	1
10	429	0.0055	0
10	495	0.0066	1
10	511	0.0066	0
10	561	0.0077	1
10	577	0.0077	0
11	4	0	1
11	20	0	0
11	82	0.0011	1
11	98	0.0011	0
11	176	0.0022	1
11	192	0.0022	0
11	254	0.0033	1
11	270	0.0033	0
11	332	0.0044	1
11	348	0.0044	0
11	410	0.0055	1
11	426	0.0055	0
11	488	0.0066	1
11	504	0.0066	0
11	566	0.0077	1
11	582	0.0077	0
12	5	0	1
12	21	0	0
12	87	0.0011	1
12	103	0.0011	0
12	169	0.0022	1
12	185	0.0022	0
12	251	0.0033	1
12	267	0.0033	0
12	333	0.0044	1
12	349	0.0044	0
12	415	0.0055	1
12	431	0.0055	0
12	481	0.0066	1
12	497	0.0066	0
12	563	0.0077	1
12	579	0.0077	0
13	6	0	1
13	22	0	0
13	84	0.0011	1
13	100	0.0011	0
13	162	0.0022	1
13	178	0.0022	0
13	256	0.0033	1
13	272	0.0033	0
13	334	0.0044	1
13	350	0.0044	0
13	412	0.0055	1
13	428	0.0055	0
13	490	0.0066	1
13	506	0.0066	0
13	568	0.0077	1
13	584	0.0077	0
13	650	1.859604212075	1
13	651	1.859604212075	0
13	659	2.646805352057	1
13	660	2.859604212075	0
13	703	4.52576940626	1
13	704	4.52576940626	0
13	733	5.563928706924	1
13	734	5.563928706924	0
13	754	6.139447903807	1
13	766	6.563928706924	0
13	815	8.362972325843	1
13	816	8.362972325843	0
13	828	8.681328466685	1
13	845	9.164930571633	2
13	846	9.362972325843	1
13	874	9.814376919884	2
13	875	10.362972325843	1
13	903	11.362972325843	0
13	919	11.486588120209	1
13	939	12.14047068743	2
13	940	12.362972325843	1
13	956	12.639342696446	2
13	974	13.362972325843	1
13	1002	14.362972325843	0
13	1040	15.237596782295	1
13	1043	15.258022370694	2
13	1044	15.362972325843	1
13	1065	15.717270507949	2
13	1073	16.362972325843	1
13	1097	17.362972325843	0
13	1127	17.504758171388	1
13	1128	18.362972325843	0
13	1158	19.010542430025	1
13	1161	19.16177328369	2
13	1165	19.362972325843	1
13	1193	20.362972325843	0
13	1223	21.202087541632	1
13	1228	21.362972325843	0
13	1320	25.047309410774	1
13	1321	25.047309410774	0
13	1337	25.666238870401	1
13	1341	26.047309410774	0
13	1383	27.182774844391	1
13	1384	27.182774844391	0
13	1415	28.20420671874	1
13	1416	28.20420671874	0
13	1429	29.076527913782	1
13	1449	29.20420671874	0
13	1519	31.970948391769	1
13	1520	31.970948391769	0
13	1547	32.6126430938	1
13	1551	32.970948391769	0
13	1585	34.100897919552	1
13	1586	34.100897919552	0
13	1603	34.344946410289	1
13	1622	35.100897919552	0
13	1646	35.185281115901	1
13	1649	35.347417605347	2
13	1654	36.100897919552	1
13	1683	36.294414282522	2
13	1690	37.100897919552	1
13	1720	37.25396225989	2
13	1721	38.100897919552	1
13	1749	39.100897919552	0
13	1779	39.582875634104	1
13	1783	40.100897919552	0
13	1816	40.728014588804	1
13	1820	41.100897919552	0
13	1853	41.677509172301	1
13	1854	42.100897919552	0
13	1884	42.873616971758	1
13	1887	42.978178197533	2
13	1890	43.040293487999	3
13	1891	43.100897919552	2
13	1922	44.100897919552	1
13	1953	45.100897919552	0
13	2014	46.540507172454	1
13	2015	46.540507172454	0
13	2018	46.727933238472	1
13	2021	46.964139944555	2
13	2053	47.407543973176	3
13	2054	47.540507172454	2
13	2061	47.786505937459	3
13	2083	48.540507172454	2
13	2095	48.72256749723	3
13	2101	49.115680054534	4
13	2104	49.154863210947	5
13	2119	49.540507172454	4
13	2135	49.732187521754	5
13	2153	50.540507172454	4
13	2169	50.738058526921	5
13	2184	51.540507172454	4
13	2212	52.540507172454	3
13	2240	53.540507172454	2
13	2256	53.931005168975	3
13	2259	54.038640277131	4
13	2280	54.540507172454	3
13	2296	55.096466690483	4
13	2313	55.272380235909	5
13	2317	55.540507172454	4
13	2345	56.540507172454	3
13	2379	57.540507172454	2
13	2413	58.540507172454	1
13	2447	59.540507172454	0
13	2494	60.632480586152	1
13	2495	60.632480586152	0
13	2501	60.805608042298	1
13	2504	60.92256345209	2
13	2531	61.632480586152	1
13	2538	62.045731753623	2
13	2561	62.427287596997	3
13	2566	62.632480586152	2
13	2578	62.646168193504	3
13	2593	63.632480586152	2
13	2627	64.632480586152	1
13	2658	65.632480586152	0
13	2674	65.633358085356	1
13	2677	65.647022663787	2
13	2680	65.749167545312	3
13	2695	66.632480586152	2
13	2711	66.724269479468	3
13	2729	67.632480586152	2
13	2765	68.544088398752	3
13	2766	68.632480586152	2
13	2794	69.632480586152	1
13	2822	70.632480586152	0
13	2883	72.293119858336	1
13	2884	72.293119858336	0
13	2896	72.925456454732	1
13	2911	73.293119858336	0
13	2922	73.638040048065	1
13	2943	74.293119858336	0
13	3039	77.399967332569	1
13	3040	77.399967332569	0
13	3046	77.732377573533	1
13	3049	77.860434338844	2
13	3066	78.305853800764	3
13	3067	78.399967332569	2
13	3074	78.657029890145	3
13	3091	79.312676174509	4
13	3092	79.399967332569	3
13	3104	79.439064810934	4
13	3119	80.399967332569	3
13	3135	80.605938337483	4
13	3138	80.988639286345	5
13	3153	81.399967332569	4
13	3187	82.399967332569	3
13	3203	83.112876483347	4
13	3220	83.179173884829	5
13	3221	83.399967332569	4
13	3237	83.423569332911	5
13	3252	84.399967332569	4
13	3271	84.602758859976	5
13	3286	85.399967332569	4
13	3305	85.438856391946	5
13	3308	85.747271232044	6
13	3323	86.399967332569	5
13	3339	86.458519169261	6
13	3356	87.199278119708	7
13	3357	87.399967332569	6
13	3391	88.399967332569	5
13	3419	89.399967332569	4
13	3435	89.684860476685	5
13	3456	90.399967332569	4
13	3472	90.542756117759	5
13	3475	90.868096533288	6
13	3492	91.251656747387	7
13	3495	91.261057498051	8
13	3496	91.399967332569	7
13	3526	92.361903408142	8
13	3527	92.399967332569	7
13	3561	93.399967332569	6
13	3594	94.209231059144	7
13	3595	94.399967332569	6
13	3626	95.399967332569	5
13	3648	96.050513530631	6
13	3666	96.399967332569	5
13	3682	96.557713653888	6
13	3708	97.362511053689	7
13	3709	97.399967332569	6
13	3725	97.824241949733	7
13	3728	97.828948490225	8
13	3731	97.987289996456	9
13	3746	98.399967332569	8
13	3765	99.119924138428	9
13	3780	99.399967332569	8
13	3796	99.434645799283	9
13	3814	100.399967332569	8
13	3830	100.65115445272	9
13	3833	100.991501190955	10
13	3851	101.399967332569	9
13	3885	102.399967332569	8
13	3916	103.399967332569	7
13	3949	104.26664436867	8
13	3950	104.399967332569	7
13	3983	105.163235239456	8
13	3984	105.399967332569	7
13	4000	106.01245605102	8
13	4015	106.399967332569	7
13	4034	107.031114781039	8
13	4052	107.399967332569	7
13	4080	108.399967332569	6
13	4110	109.252621679513	7
13	4111	109.399967332569	6
13	4144	110.392229643046	7
13	4145	110.399967332569	6
13	4164	110.988609037376	7
13	4179	111.399967332569	6
13	4207	112.399967332569	5
13	4238	113.399967332569	4
13	4272	114.399967332569	3
13	4291	114.83161562062	4
13	4306	115.399967332569	3
13	4337	116.399967332569	2
13	4356	116.512537825166	3
13	4374	117.399967332569	2
13	4390	117.63781984201	3
13	4393	117.92523031808	4
13	4408	118.399967332569	3
13	4424	118.795766144406	4
13	4444	119.171504986813	5
13	4445	119.399967332569	4
13	4473	120.399967332569	3
13	4504	121.399967332569	2
13	4535	122.399967332569	1
13	4551	122.535875439864	2
13	4569	123.399967332569	1
13	4585	123.827784708665	2
13	4603	124.399967332569	1
13	4619	124.523584169565	2
13	4640	125.399967332569	1
13	4668	126.399967332569	0
13	4721	127.649052527223	1
13	4722	127.649052527223	0
13	4751	128.58145540763	1