file 153642 1717202722                                          
version 3
run General-0-20240531-21:44:24-3668
attr configname General
attr datetime 20240531-21:44:24
attr datetimef 20240531-214424
attr experiment General
attr inifile omnetpp.ini
attr iterationvars ""
attr iterationvarsd ""
attr iterationvarsf ""
attr measurement ""
attr network Network
attr processid 3668
attr repetition 0
attr replication #0
attr resultdir results
attr runnumber 0
attr seedset 0
config network Network
config sim-time-limit 200s
config Network.node[{0,1,3,2,4,6,7,8}].app.interArrivalTime exponential(1)
config Network.node[{0,1,3,2,4,6,7,8}].app.packetByteSize 125000
config Network.node[{0,1,3,2,4,6,7,8}].app.destination 5

vector 0 Network.node[0].app "Packets Generated" ETV
vector 1 Network.node[1].app "Packets Generated" ETV
vector 2 Network.node[2].app "Packets Generated" ETV
vector 3 Network.node[3].app "Packets Generated" ETV
vector 4 Network.node[4].app "Packets Generated" ETV
vector 5 Network.node[5].app "Packets Generated" ETV
vector 6 Network.node[6].app "Packets Generated" ETV
vector 7 Network.node[7].app "Packets Generated" ETV
vector 8 Network.node[7].lnk[0] "Buffer Size" ETV
vector 9 Network.node[6].lnk[0] "Buffer Size" ETV
vector 10 Network.node[0].lnk[0] "Buffer Size" ETV
vector 11 Network.node[4].lnk[0] "Buffer Size" ETV
vector 12 Network.node[5].app Delay ETV
vector 13 Network.node[1].lnk[0] "Buffer Size" ETV
vector 14 Network.node[3].lnk[0] "Buffer Size" ETV
vector 15 Network.node[2].lnk[0] "Buffer Size" ETV
0	1472 74 0 38 0 1.866362877577 4 0 3 6 14
1	1546 30 0 34 0 1.859604212075 2 0 1 1 1
2	1576 30 0 50 0 1.951545335884 2 0 1 1 1
3	1606 30 0 41 0 1.878964054203 2 0 1 1 1
4	1636 52 0 27 0 1.460608531341 3 0 2 3 5
5	1688 8 0 0 0 0 1 0 0 0 0
6	1696 50 0 9 0 0.543512832815 3 0 2 3 5
7	1746 29 0 1 0 0.353159139138 2 0 1 1 1
8	1775 86 3 49 0.353159139138 1.898660388484 4 0 1 2 2
9	1861 108 7 30 0.485128163722 1.485128163722 5 0 2 5 7
10	1969 115 14 45 0.898560388484 1.898560388484 5 0 2 5 7
11	2084 92 18 54 0.977006426393 1.977006426393 4 0 1 2 2
12	2176 28 33 33 1.485228163722 1.485228163722 1 1.0001 1.0001 1.0001 1.00020001
13	2204 46 36 37 1.859604212075 1.859604212075 2 0 1 1 1
14	2250 46 43 44 1.878964054203 1.878964054203 2 0 1 1 1
15	2296 46 52 53 1.951545335884 1.951545335884 2 0 1 1 1
0	2342 5383 68 9533 2.61903699089 197.110720410567 201 4 204 20904 2850716
1	7725 5192 122 9658 3.5318154124 199.998596976994 195 2 196 19305 2529085
2	12917 6016 71 9598 2.790978188784 198.815600524655 224 2 225 25424 3822224
3	18933 4929 62 9628 2.532846621424 199.457914070233 186 2 187 17577 2197249
4	23862 5147 102 9635 3.029504648964 199.612436582109 193 3 195 19107 2490665
6	29009 4332 128 9588 3.858425112743 198.130166211294 163 3 165 13692 1511010
7	33341 5486 65 9572 2.576683561174 198.017842065503 205 2 206 21320 2935190
8	38827 16096 67 9646 2.576683561174 199.898660388484 601 0 205 60517 8287237
9	54923 14910 58 9649 2.485128163722 199.898760388484 559 0 164 46377 5122775
10	69833 16599 70 9657 2.61903699089 199.951745335884 597 1 202 59488 8082110
11	86432 9866 104 9637 3.029504648964 199.612436582109 376 0 11 1178 6224
12	96298 7952 61 9634 2.485228163722 199.485228163722 198 1.626803050979 184.2298320045 12841.037811981 1213973.2637321
13	104250 16406 96 9660 2.951645335884 199.998596976994 591 0 195 57854 7538332
14	120656 15717 57 9638 1.977106426393 199.878964054203 568 1 173 53624 6465516
15	136373 17268 73 9650 2.790978188784 199.951545335884 620 1 225 69650 10404022

