version 3
run General-0-20240531-17:58:28-65752
attr configname General
attr datetime 20240531-17:58:28
attr datetimef 20240531-175828
attr experiment General
attr inifile omnetpp.ini
attr iterationvars ""
attr iterationvarsd ""
attr iterationvarsf ""
attr measurement ""
attr network Network
attr processid 65752
attr repetition 0
attr replication #0
attr resultdir results
attr runnumber 0
attr seedset 0
config network Network
config sim-time-limit 200s
config Network.node[{0,1,3,2,4,6,7,8}].app.interArrivalTime exponential(1)
config Network.node[{0,1,3,2,4,6,7,8}].app.packetByteSize 125000
config Network.node[{0,1,3,2,4,6,7,8}].app.destination 5

vector 0 Network.node[0].app "Packets Generated" ETV
vector 1 Network.node[1].app "Packets Generated" ETV
vector 2 Network.node[2].app "Packets Generated" ETV
vector 3 Network.node[3].app "Packets Generated" ETV
vector 4 Network.node[4].app "Packets Generated" ETV
vector 5 Network.node[5].app "Packets Generated" ETV
vector 6 Network.node[6].app "Packets Generated" ETV
vector 7 Network.node[7].app "Packets Generated" ETV
vector 8 Network.node[7].lnk[0] "Buffer Size" ETV
vector 9 Network.node[6].lnk[0] "Buffer Size" ETV
vector 10 Network.node[0].lnk[0] "Buffer Size" ETV
vector 11 Network.node[4].lnk[0] "Buffer Size" ETV
vector 12 Network.node[5].app Delay ETV
vector 13 Network.node[1].lnk[0] "Buffer Size" ETV
vector 14 Network.node[3].lnk[0] "Buffer Size" ETV
vector 15 Network.node[2].lnk[0] "Buffer Size" ETV
0	0	0	0
0	12	0.898560388484	1
0	20	1.216916529326	2
0	38	1.866362877577	3
0	68	2.61903699089	4
0	161	4.427406255165	5
0	336	8.272628124307	6
0	348	8.478831406337	7
0	358	8.722879897074	8
0	361	8.868157924366	9
0	368	8.887126493567	10
0	400	9.278897304244	11
0	410	9.530339236319	12
0	442	10.018896285627	13
0	465	10.616642362445	14
0	511	11.812750161902	15
0	582	12.923347607589	16
0	622	13.767775401117	17
0	648	14.002076919893	18
0	655	14.177990465319	19
0	898	19.538090815562	20
0	1081	23.300018100066	21
0	1188	25.303258622573	22
0	1238	26.563192432682	23
0	1298	27.446321474641	24
0	1360	28.775079348391	25
0	1406	29.624300159955	26
0	1436	30.216924187407	27
0	1515	32.090384067264	28
0	1571	33.215666084108	29
0	1601	34.103527494545	30
0	1660	35.181362378681	31
0	1709	36.113765259088	32
0	1721	36.45342999167	33
0	1795	37.836409198207	34
0	1975	41.308944677489	35
0	2058	43.148677462566	36
0	2061	43.280861172181	37
0	2117	44.79068462779	38
0	2120	44.824471413342	39
0	2127	44.896146797655	40
0	2319	48.94599363646	41
0	2346	49.169132844561	42
0	2372	49.791730188539	43
0	2441	51.010526991882	44
0	2444	51.062209897677	45
0	2479	51.923133534358	46
0	2493	52.234101339328	47
0	2543	53.370697834585	48
0	2700	56.708632168439	49
0	2735	57.082301962833	50
0	2781	58.043741534404	51
0	2834	59.40567325871	52
0	2942	61.675513274494	53
0	2982	62.713363349983	54
0	3021	63.446731023151	55
0	3057	64.000901852199	56
0	3107	65.139959502872	57
0	3169	66.694622440681	58
0	3214	67.332811046274	59
0	3227	67.801487522251	60
0	3254	68.043407167022	61
0	3266	68.368623184998	62
0	3370	70.362662386275	63
0	3383	70.519138156659	64
0	3392	70.652478779932	65
0	3538	73.473114728347	66
0	3548	73.489680822769	67
0	3682	76.142239338289	68
0	3689	76.554969205016	69
0	3695	76.801385027229	70
0	3731	77.408664315848	71
0	3758	78.086466317903	72
0	3876	80.923106511278	73
0	3891	81.349642323314	74
0	3978	83.332391227917	75
0	3988	83.64638912598	76
0	4020	84.174856354282	77
0	4036	84.528452929545	78
0	4042	84.657033166821	79
0	4213	88.60466643438	80
0	4245	88.998168845503	81
0	4248	89.012215436745	82
0	4251	89.023708686954	83
0	4277	89.786132371169	84
0	4309	90.074645081517	85
0	4369	91.737610862191	86
0	4404	92.214089444789	87
0	4416	92.355057329204	88
0	4430	92.714018647581	89
0	4456	93.01799020681	90
0	4485	93.627054662134	91
0	4520	94.195225145876	92
0	4592	95.748970647908	93
0	4633	96.217077101143	94
0	4636	96.360330122525	95
0	4647	96.579798283419	96
0	4731	98.090259884643	97
0	4757	98.760491761219	98
0	4792	99.405400252385	99
0	4841	100.118784535186	100
0	4874	100.89362691469	101
0	4902	101.100812096941	102
0	4935	101.885649116533	103
0	5005	103.496981115654	104
0	5040	104.052640028812	105
0	5050	104.449720978832	106
0	5118	105.863504308371	107
0	5157	106.476249753235	108
0	5199	107.2922683172	109
0	5279	109.280207772044	110
0	5282	109.379429298528	111
0	5328	110.370708804287	112
0	5363	110.922412416877	113
0	5417	112.278130930727	114
0	5434	112.864899737407	115
0	5441	112.881363021392	116
0	5492	113.640327795641	117
0	5654	116.546247399297	118
0	5663	116.686723116252	119
0	5707	117.362078986424	120
0	5710	117.408813888159	121
0	5742	117.934844683919	122
0	5790	118.953062262726	123
0	5988	123.500886114586	124
0	6021	124.093543532523	125
0	6099	125.857630924712	126
0	6251	129.330486630615	127
0	6304	130.500922360629	128
0	6350	131.498221284796	129
0	6370	131.890382574419	130
0	6456	133.477739804111	131
0	6463	133.702782297973	132
0	6509	134.707897946545	133
0	6591	136.097256453493	134
0	6594	136.170762830912	135
0	6631	137.116864572166	136
0	6637	137.282157584487	137
0	6660	137.822560282089	138
0	6675	137.927956412001	139
0	6692	138.410531627162	140
0	6702	138.485723436326	141
0	6705	138.505212729278	142
0	6744	139.296821823881	143
0	6751	139.596174826822	144
0	6844	141.866884934219	145
0	6876	142.152453854722	146
0	6890	142.52406960955	147
0	6919	142.990933953113	148
0	6922	143.017814572623	149
0	6971	144.40649184649	150
0	6981	144.591107719396	151
0	7088	146.908633781962	152
0	7221	149.803751398983	153
0	7256	150.270048425421	154
0	7276	150.718136393796	155
0	7279	150.742750037867	156
0	7323	151.29701851128	157
0	7375	152.471088648074	158
0	7438	153.758978887184	159
0	7478	154.64750759951	160
0	7481	154.66452322324	161
0	7521	155.764991753718	162
0	7579	156.920466482465	163
0	7694	159.440355176312	164
0	7791	161.620375623468	165
0	7823	162.097373374412	166
0	7829	162.226252020454	167
0	7875	163.367867543975	168
0	7882	163.491277015482	169
0	7885	163.527976085763	170
0	7892	163.640506032142	171
0	7895	163.832601608291	172
0	7921	164.213112556853	173
0	7931	164.4961849927	174
0	7973	165.323510916303	175
0	8013	166.234656724373	176
0	8066	167.10427208521	177
0	8082	167.552601391822	178
0	8183	169.660381750225	179
0	8228	170.413151402264	180
0	8286	171.322722107137	181
0	8299	171.669650990292	182
0	8302	171.734944585938	183
0	8418	174.334617831283	184
0	8558	176.968749227226	185
0	8722	181.144192831454	186
0	8728	181.461962172836	187
0	8735	181.547582966947	188
0	8753	181.707382747381	189
0	8789	182.273512299077	190
0	8851	183.756685707112	191
0	8924	185.124739728487	192
0	9013	187.348522544237	193
0	9123	189.32947784036	194
0	9129	189.452588295277	195
0	9165	190.063342470142	196
0	9179	190.614480418457	197
0	9280	192.560265002379	198
0	9313	193.070536400138	199
0	9329	193.579964910359	200
0	9381	194.533250841582	201
0	9442	195.829128658081	202
0	9530	197.080637615032	203
0	9533	197.110720410567	204
1	0	0	0
1	34	1.859604212075	1
1	122	3.5318154124	2
1	245	6.681985341076	3
1	257	6.807859750514	4
1	280	6.962589431014	5
1	300	7.733424089481	6
1	306	7.845370250114	7
1	355	8.487064952145	8
1	403	9.327399657757	9
1	452	10.286947635125	10
1	504	11.236442218622	11
1	545	12.29527635011	12
1	564	12.738680378731	13
1	603	13.190782438956	14
1	658	14.196653444123	15
1	701	15.255396159217	16
1	735	15.89917716082	17
1	798	17.022345462353	18
1	861	18.74267712007	19
1	953	20.847998420862	20
1	1146	24.739568543707	21
1	1179	25.123128757806	22
1	1273	26.970456408808	23
1	1295	27.432187304852	24
1	1357	28.648695958289	25
1	1461	30.91242953415	26
1	1472	31.035956181512	27
1	1482	31.388976314786	28
1	1564	33.069898519332	29
1	1608	34.249281452977	30
1	1639	34.945080913877	31
1	1663	35.447391712138	32
1	1702	36.091496420461	33
1	1761	37.170816619117	34
1	1767	37.279363717612	35
1	1776	37.376286472189	36
1	1825	38.270015550495	37
1	1838	38.657145642644	38
1	1951	40.925779635336	39
1	1978	41.36012529128	40
1	1985	41.521995377992	41
1	2077	43.872172667743	42
1	2107	44.40217554588	43
1	2114	44.552966556074	44
1	2149	45.075836586162	45
1	2169	45.543109152572	46
1	2172	45.595021704755	47
1	2258	47.607794440961	48
1	2316	48.917092804984	49
1	2349	49.331071727657	50
1	2366	49.5845774328	51
1	2490	52.216796295349	52
1	2536	53.168626002891	53
1	2586	54.478411374253	54
1	2602	54.713935947672	55
1	2749	57.603011539571	56
1	2791	58.384987260447	57
1	2824	59.036217992365	58
1	2847	59.805337793461	59
1	2879	60.439267812855	60
1	2985	62.808185983692	61
1	3031	63.799690276589	62
1	3152	65.965453957464	63
1	3159	66.2053774769	64
1	3315	69.362473018316	65
1	3328	69.554734459158	66
1	3364	70.059014392409	67
1	3367	70.261473156107	68
1	3380	70.490717481314	69
1	3431	71.160258072175	70
1	3434	71.257425750542	71
1	3557	73.597917711199	72
1	3630	75.38790731568	73
1	3636	75.453999326373	74
1	3676	76.118807075925	75
1	3761	78.210363648548	76
1	3799	79.467600644119	77
1	3845	80.463064287486	78
1	3852	80.67916050408	79
1	3898	81.64117243067	80
1	3901	81.801506525157	81
1	3972	83.317575454982	82
1	3975	83.321631776303	83
1	4023	84.341818864258	84
1	4039	84.552352152462	85
1	4045	84.806363530812	86
1	4060	84.909331894531	87
1	4077	85.430410715616	88
1	4254	89.0393517206	89
1	4320	90.511555878594	90
1	4323	90.793079901065	91
1	4355	91.3589744427	92
1	4462	93.12859426591	93
1	4526	94.27833565366	94
1	4532	94.336863552607	95
1	4586	95.530876923202	96
1	4598	95.831202003488	97
1	4659	96.716962649518	98
1	4728	97.972856133858	99
1	4737	98.339307425691	100
1	4760	98.874711776784	101
1	4775	98.910714606533	102
1	4851	100.441563025476	103
1	4867	100.835620597423	104
1	4896	101.009819314006	105
1	4991	103.353059244099	106
1	4998	103.451178766728	107
1	5115	105.795048407527	108
1	5147	106.060141508934	109
1	5273	109.133216731719	110
1	5276	109.222049114374	111
1	5285	109.395705677582	112
1	5331	110.39975685146	113
1	5374	110.992838448785	114
1	5377	111.026710304027	115
1	5380	111.393415457821	116
1	5538	114.587177330503	117
1	5573	114.982742930898	118
1	5669	116.812285086757	119
1	5859	120.809848563477	120
1	5885	121.28906125796	121
1	5932	122.29399456702	122
1	5975	122.982508455064	123
1	6027	124.208640667298	124
1	6129	126.798466812795	125
1	6245	129.151801580868	126
1	6254	129.41761812989	127
1	6286	129.904137269648	128
1	6297	130.024968665911	129
1	6395	132.159671060452	130
1	6411	132.756220977329	131
1	6506	134.583747245146	132
1	6545	135.012659080918	133
1	6695	138.453603128503	134
1	6854	141.889226520981	135
1	6893	142.594175842357	136
1	6987	144.846668712428	137
1	7017	145.247050243887	138
1	7020	145.357566120489	139
1	7057	146.0759319557	140
1	7106	147.423380779391	141
1	7113	147.652697951028	142
1	7163	148.783155149342	143
1	7212	149.56771184626	144
1	7236	149.923877627824	145
1	7239	149.94871083557	146
1	7273	150.70487708336	147
1	7282	150.871672841482	148
1	7320	151.291152164951	149
1	7333	151.526558031456	150
1	7343	151.631270304885	151
1	7369	151.973444996501	152
1	7386	152.747961784436	153
1	7518	155.721170123918	154
1	7602	157.401452523999	155
1	7645	158.135322491022	156
1	7665	158.753374868162	157
1	7701	159.527988604518	158
1	7794	161.649143061364	159
1	7918	164.204660778028	160
1	7944	164.697539546395	161
1	7947	164.872449806491	162
1	7984	165.74020494943	163
1	8019	166.331507734999	164
1	8029	166.489179787828	165
1	8040	166.898097317075	166
1	8075	167.478386905058	167
1	8091	167.762606648586	168
1	8094	167.824422797234	169
1	8143	168.553429518615	170
1	8250	170.836823553034	171
1	8421	174.350802375985	172
1	8457	174.960564548843	173
1	8611	178.483715890072	174
1	8685	180.160650623064	175
1	8738	181.60695819522	176
1	8828	183.056280064696	177
1	8844	183.449497351687	178
1	8961	186.205710429165	179
1	8974	186.684287000235	180
1	9062	188.132433124185	181
1	9072	188.614412333745	182
1	9075	188.715961104326	183
1	9099	188.901117157812	184
1	9110	188.96143518159	185
1	9120	189.277672287432	186
1	9151	189.918587710628	187
1	9335	193.828728480282	188
1	9353	193.901344538388	189
1	9433	195.629603911356	190
1	9478	196.149425856236	191
1	9491	196.659685006594	192
1	9546	197.59187174716	193
1	9595	198.737949782224	194
1	9625	199.255873227295	195
1	9658	199.998596976994	196
2	0	0	0
2	50	1.951545335884	1
2	71	2.790978188784	2
2	78	2.864663544249	3
2	115	3.276241540492	4
2	192	5.063729203931	5
2	205	5.705438376609	6
2	238	6.324367836236	7
2	287	7.460306777946	8
2	455	10.354727255933	9
2	480	10.929259662674	10
2	495	11.033820888449	11
2	498	11.095936178915	12
2	665	14.59614986337	13
2	707	15.468065716996	14
2	759	16.444929791067	15
2	834	17.95156512434	16
2	884	19.071379490094	17
2	904	19.70371608649	18
2	950	20.632194583391	19
2	976	20.964604824355	20
2	982	21.092661589666	21
2	992	21.443837679047	22
2	1002	21.570226315472	23
2	1028	21.952927264334	24
2	1051	22.487811640091	25
2	1084	23.320655156157	26
2	1097	23.629069996255	27
2	1222	26.114652353232	28
2	1228	26.456306520258	29
2	1244	26.658656958825	30
2	1247	26.678969417621	31
2	1250	26.859221669606	32
2	1354	28.624962742019	33
2	1400	29.521553612805	34
2	1532	32.573835269689	35
2	1574	33.444371096015	36
2	1621	34.736280364816	37
2	1650	34.998337606491	38
2	1670	35.549733596625	39
2	1673	35.569113377973	40
2	1712	36.204241093604	41
2	1728	36.546840718302	42
2	1754	37.106801788376	43
2	1764	37.252375766824	44
2	1783	37.606599899069	45
2	1828	38.409151884828	46
2	1873	38.973762385949	47
2	2052	43.111572146459	48
2	2100	44.067538570381	49
2	2138	44.909419532113	50
2	2201	46.104858098395	51
2	2208	46.121625864387	52
2	2288	48.058203101878	53
2	2294	48.472815644537	54
2	2337	49.145276161371	55
2	2343	49.163971631792	56
2	2409	50.742384353898	57
2	2496	52.273215580165	58
2	2533	53.040295234737	59
2	2583	54.429972298513	60
2	2596	54.668725171361	61
2	2608	54.874757219844	62
2	2680	56.220104653078	63
2	2686	56.279885615993	64
2	2706	56.849783181299	65
2	2778	58.041641284954	66
2	2784	58.111258956028	67
2	2827	59.248797461569	68
2	2873	60.182857794174	69
2	2893	60.791690707911	70
2	2896	60.812557926521	71
2	2925	61.072909338068	72
2	2928	61.458597032113	73
2	3034	63.806440793542	74
2	3060	64.011788562278	75
2	3205	67.064973231871	76
2	3208	67.231847873104	77
2	3224	67.784686243756	78
2	3269	68.407515553521	79
2	3331	69.782195507323	80
2	3373	70.404232426404	81
2	3386	70.584506725982	82
2	3424	71.023962116475	83
2	3483	72.404925212142	84
2	3486	72.451612955786	85
2	3643	75.720109356609	86
2	3692	76.588675088075	87
2	3809	79.84759606526	88
2	3916	81.92135752836	89
2	4099	85.929307183234	90
2	4257	89.169270150135	91
2	4268	89.532512369037	92
2	4271	89.691445548693	93
2	4375	91.835831013206	94
2	4390	91.937365097147	95
2	4407	92.252525125863	96
2	4465	93.148854330884	97
2	4488	93.732278101919	98
2	4523	94.21019608943	99
2	4529	94.300533333512	100
2	4572	95.379460242012	101
2	4669	96.881873035723	102
2	4702	97.556824009376	103
2	4734	98.288369348509	104
2	4786	99.150036840304	105
2	4806	99.712862042121	106
2	4854	100.481115383988	107
2	4893	100.979807716858	108
2	4908	101.118394538281	109
2	4925	101.728877383279	110
2	4928	101.815494377726	111
2	4957	102.429098587467	112
2	5057	104.52573486099	113
2	5060	104.55317696142	114
2	5109	105.563946124519	115
2	5133	105.93252906413	116
2	5164	106.632554700245	117
2	5196	107.243612261531	118
2	5233	108.101047364145	119
2	5236	108.272585991518	120
2	5345	110.667765780907	121
2	5411	111.968603208367	122
2	5414	112.096176782164	123
2	5428	112.535253767752	124
2	5466	112.976408578482	125
2	5486	113.489335570311	126
2	5489	113.594268317639	127
2	5535	114.533770303502	128
2	5541	114.591363220319	129
2	5544	114.681870690467	130
2	5562	114.946805628104	131
2	5617	115.89992816637	132
2	5660	116.686487258262	133
2	5666	116.698596503324	134
2	5672	116.821311510641	135
2	5724	117.78490420693	136
2	5756	117.962780964786	137
2	5767	118.636724409005	138
2	5807	119.658442756415	139
2	5833	120.033504699534	140
2	5899	121.652165765954	141
2	6030	124.267806698376	142
2	6049	124.774529912276	143
2	6079	125.203037516456	144
2	6140	126.890255805214	145
2	6248	129.163962971902	146
2	6261	129.607297367903	147
2	6264	129.667425737033	148
2	6392	132.15305682138	149
2	6421	132.854102330706	150
2	6450	133.125572297135	151
2	6485	133.936065444317	152
2	6582	135.955649947536	153
2	6634	137.186368798567	154
2	6653	137.779699366828	155
2	6711	138.706337967125	156
2	6738	139.027678269994	157
2	6741	139.188408310561	158
2	6778	140.085461324667	159
2	6784	140.328206762027	160
2	6825	141.195498780858	161
2	6838	141.514339829271	162
2	6873	142.028025442535	163
2	6929	143.261114169752	164
2	6965	144.243642512474	165
2	7116	147.658567414906	166
2	7145	148.07665907385	167
2	7166	148.871531909916	168
2	7192	149.032016017274	169
2	7308	150.972064227152	170
2	7358	151.945536770798	171
2	7412	153.133865931085	172
2	7415	153.136572805664	173
2	7424	153.394157672005	174
2	7464	154.311429468917	175
2	7613	157.602078299176	176
2	7642	158.085131323439	177
2	7648	158.180415806311	178
2	7654	158.438875055029	179
2	7691	158.967019045751	180
2	7777	161.149732935036	181
2	7826	162.121781903516	182
2	7941	164.689714532218	183
2	8059	167.057950585221	184
2	8117	168.04018876963	185
2	8124	168.103212213887	186
2	8146	168.746937019739	187
2	8169	168.954640305951	188
2	8216	170.071158879509	189
2	8234	170.457653061553	190
2	8293	171.504845317045	191
2	8342	172.645369792009	192
2	8375	173.161573246946	193
2	8381	173.433924473301	194
2	8415	174.156526710836	195
2	8428	174.615278013482	196
2	8480	175.511963850067	197
2	8526	176.582046339695	198
2	8565	177.097493889702	199
2	8578	177.531193360103	200
2	8688	180.305947981683	201
2	8691	180.426406249452	202
2	8741	181.624557637296	203
2	8750	181.689241242441	204
2	8756	181.836873125672	205
2	8786	182.138828129161	206
2	8887	184.187411285758	207
2	8995	186.933663155982	208
2	9055	188.00299421435	209
2	9081	188.873074124717	210
2	9188	190.836197414274	211
2	9228	191.497277215104	212
2	9237	191.765500308375	213
2	9283	192.878364119987	214
2	9342	193.897759308055	215
2	9391	194.879544213655	216
2	9436	195.649406149469	217
2	9465	195.979512843523	218
2	9468	196.009920837287	219
2	9494	196.834492560466	220
2	9512	196.923578517957	221
2	9575	198.019228388206	222
2	9578	198.048853140503	223
2	9581	198.050061442381	224
2	9598	198.815600524655	225
3	0	0	0
3	41	1.878964054203	1
3	62	2.532846621424	2
3	106	3.03171863044	3
3	158	4.076331138748	4
3	235	6.11722335466	5
3	294	7.63375932865	6
3	394	9.055124008744	7
3	397	9.21726049819	8
3	449	10.164257175365	9
3	462	10.609775670416	10
3	585	12.93612673211	11
3	596	12.975309888523	12
3	616	13.55263419933	13
3	619	13.660269307486	14
3	668	14.718095720838	15
3	694	15.010176254105	16
3	714	15.638117835096	17
3	720	15.811245291242	18
3	738	15.928200701034	19
3	795	16.996272898184	20
3	844	18.082542279062	21
3	851	18.183577054371	22
3	1005	21.757165426715	23
3	1104	23.881402623717	24
3	1123	23.980052932135	25
3	1235	26.520357440094	26
3	1276	27.027557563351	27
3	1279	27.032264103843	28
3	1289	27.190605610074	29
3	1331	28.033688642222	30
3	1351	28.601592795702	31
3	1383	29.10593660229	32
3	1433	30.124595332309	33
3	1443	30.720974726639	34
3	1618	34.563981309883	35
3	1786	37.689449667541	36
3	1835	38.543529403184	37
3	1841	38.793610898162	38
3	1862	38.945904523416	39
3	1896	39.518366074844	40
3	1930	40.735385570181	41
3	1933	40.84099821381	42
3	1954	40.94588004941	43
3	2015	42.198487574322	44
3	2018	42.236770487207	45
3	2021	42.414096062352	46
3	2055	43.124013989576	47
3	2064	43.306552591459	48
3	2156	45.190481478045	49
3	2175	45.794780549893	50
3	2211	46.249692394685	51
3	2218	46.512021703851	52
3	2221	46.523804935769	53
3	2285	47.971599017757	54
3	2291	48.159893992976	55
3	2305	48.896025092963	56
3	2330	48.951895145852	57
3	2340	49.149724653311	58
3	2352	49.337243604514	59
3	2451	51.413274664957	60
3	2510	52.614245571499	61
3	2550	53.505624148409	62
3	2557	53.879510644312	63
3	2599	54.687490697711	64
3	2626	54.93434996651	65
3	2648	55.608594536146	66
3	2654	55.866607300086	67
3	2677	56.160114952009	68
3	2683	56.249269242004	69
3	2689	56.30734160412	70
3	2732	56.97645532781	71
3	2742	57.450871618143	72
3	2752	57.648839353477	73
3	2755	57.67382770679	74
3	2844	59.60218784367	75
3	3067	64.241840370044	76
3	3077	64.850884982753	77
3	3120	65.511388062502	78
3	3172	66.823896055468	79
3	3175	66.849893800661	80
3	3257	68.09324457861	81
3	3263	68.299602572215	82
3	3349	69.947678745376	83
3	3441	71.782942148316	84
3	3470	72.028140240958	85
3	3493	72.831532003625	86
3	3523	73.066187852881	87
3	3532	73.404342567725	88
3	3551	73.51002974183	89
3	3554	73.519312766208	90
3	3597	74.627722520422	91
3	3649	75.843412993781	92
3	3728	77.392424672936	93
3	3839	80.374625348409	94
3	3935	82.236056991391	95
3	3949	82.88685433375	96
3	3985	83.574797812211	97
3	4017	84.034589129987	98
3	4084	85.761222509729	99
3	4113	86.182215807778	100
3	4207	88.552603388392	101
3	4352	91.159175190713	102
3	4401	91.974193521609	103
3	4410	92.270095394857	104
3	4413	92.327061927324	105
3	4453	92.974236631367	106
3	4482	93.587675720959	107
3	4506	93.921079059334	108
3	4517	94.120934597255	109
3	4549	94.83294266288	110
3	4656	96.71206109709	111
3	4662	96.757699146586	112
3	4740	98.366116995672	113
3	4922	101.570925825284	114
3	5011	103.708347515701	115
3	5043	104.349321060965	116
3	5112	105.608962231589	117
3	5250	108.807217208359	118
3	5342	110.497452163117	119
3	5348	110.796780545535	120
3	5431	112.687509699966	121
3	5472	113.184718986309	122
3	5596	115.833907248539	123
3	5643	116.39391562187	124
3	5727	117.868337846654	125
3	5804	119.649272521545	126
3	5810	119.716806678422	127
3	5882	121.245745549134	128
3	5896	121.528192261092	129
3	5945	122.624384822101	130
3	5972	122.9627309408	131
3	6046	124.691850578483	132
3	6082	125.28802246988	133
3	6089	125.585395997788	134
3	6271	129.81841179412	135
3	6334	131.130374875205	136
3	6340	131.272877820856	137
3	6356	131.741673512495	138
3	6428	132.88146891916	139
3	6496	134.222370643751	140
3	6542	134.95559598243	141
3	6548	135.116738561256	142
3	6551	135.258131673989	143
3	6787	140.443261097022	144
3	6828	141.246397868943	145
3	6841	141.85418263306	146
3	6851	141.880010677486	147
3	6962	144.069657392044	148
3	7070	146.64877052283	149
3	7103	147.40398234059	150
3	7215	149.637622191689	151
3	7218	149.645537538195	152
3	7253	150.262130626718	153
3	7389	152.814607120265	154
3	7421	153.307048496642	155
3	7453	153.913760905886	156
3	7515	155.708434019883	157
3	7547	156.289442675342	158
3	7599	157.335267968128	159
3	7820	162.061663164989	160
3	7843	162.84119819382	161
3	7869	163.179639326637	162
3	7872	163.223566560764	163
3	7987	165.746584022119	164
3	8010	166.018449860693	165
3	8133	168.403065203924	166
3	8189	169.74969249246	167
3	8219	170.112739646854	168
3	8519	176.308649765576	169
3	8571	177.385040224994	170
3	8618	178.66304235416	171
3	8644	178.973238477424	172
3	8658	179.803499124191	173
3	8817	182.948496676894	174
3	8835	183.073289769155	175
3	8838	183.186463101547	176
3	8874	184.062101899638	177
3	8984	186.888625870203	178
3	9010	187.098190355929	179
3	9126	189.388447575829	180
3	9162	190.041900835556	181
3	9322	193.461037338242	182
3	9356	193.930645370371	183
3	9481	196.383951211874	184
3	9488	196.500242878641	185
3	9536	197.257097195867	186
3	9628	199.457914070233	187
4	0	0	0
4	16	0.977006426393	1
4	27	1.460608531341	2
4	102	3.029504648964	3
4	109	3.120665675088	4
4	112	3.141091263487	5
4	125	3.600339400742	6
4	195	5.106123659379	7
4	248	6.711363216441	8
4	329	7.986590918665	9
4	339	8.293871270818	10
4	416	9.78212609657	11
4	538	12.111039470784	12
4	548	12.298465536802	13
4	551	12.43649422523	14
4	625	13.825536915021	15
4	671	14.833556160441	16
4	704	15.368620837524	17
4	717	15.648897846003	18
4	749	16.061399075925	19
4	756	16.442954919299	20
4	766	16.591667188551	21
4	772	16.810547785058	22
4	805	17.270561742798	23
4	808	17.284226321229	24
4	811	17.386371202754	25
4	854	18.36147313691	26
4	1034	22.110504596494	27
4	1041	22.176801997976	28
4	1044	22.421197446058	29
4	1094	23.600386973123	30
4	1133	24.34114592357	31
4	1136	24.42791640591	32
4	1282	27.077172334586	33
4	1341	28.209806476558	34
4	1403	29.620830885852	35
4	1446	30.760438849385	36
4	1512	31.962677416632	37
4	1525	32.467696164387	38
4	1538	32.755106640457	39
4	1628	34.88993709044	40
4	1688	35.922734101085	41
4	1715	36.281661316955	42
4	1731	36.765297003544	43
4	1847	38.872744608494	44
4	1876	38.975065223347	45
4	1972	41.199979880572	46
4	2281	47.965370400509	47
4	2355	49.35166175253	48
4	2369	49.775318853887	49
4	2406	50.71245757161	50
4	2412	50.744814376255	51
4	2430	50.924771717807	52
4	2468	51.896253875902	53
4	2593	54.617602131815	54
4	2605	54.869200744928	55
4	2651	55.712179520342	56
4	2709	56.853317423201	57
4	2886	60.600012037026	58
4	2914	60.90561693884	59
4	3014	63.039180226315	60
4	3018	63.412943520132	61
4	3028	63.732518175005	62
4	3113	65.332237616845	63
4	3123	65.592877746221	64
4	3221	67.715624400163	65
4	3282	68.754830036744	66
4	3321	69.483353879478	67
4	3395	70.702353224659	68
4	3401	70.73327951622	69
4	3477	72.10762253064	70
4	3535	73.423248788937	71
4	3545	73.488361653724	72
4	3587	74.299502675952	73
4	3764	78.455473771515	74
4	3832	80.060932534583	75
4	3855	80.750367072431	76
4	3931	82.234609555081	77
4	4116	86.436468981329	78
4	4147	86.966430560601	79
4	4150	87.411579900007	80
4	4164	87.816762782349	81
4	4179	87.901342274111	82
4	4193	88.260636179237	83
4	4274	89.753268343429	84
4	4280	89.836130616348	85
4	4295	89.930005163631	86
4	4346	91.061383931235	87
4	4366	91.607041646002	88
4	4479	93.577099211594	89
4	4583	95.491941469237	90
4	4650	96.635632089824	91
4	4688	97.251551373608	92
4	4691	97.331630229552	93
4	4725	97.965562356044	94
4	4838	100.108662056474	95
4	4844	100.433832926963	96
4	4861	100.571786158892	97
4	4864	100.730798175691	98
4	5017	103.863627665238	99
4	5063	104.731597647256	100
4	5144	106.04611974534	101
4	5185	106.94012114802	102
4	5222	107.912132039082	103
4	5296	109.63120135087	104
4	5322	110.139420804923	105
4	5325	110.204186497713	106
4	5463	112.964790953396	107
4	5547	114.831431423577	108
4	5579	115.102155814314	109
4	5599	115.841075834253	110
4	5679	116.89041800018	111
4	5704	117.170993926357	112
4	5902	121.811273922307	113
4	5942	122.53965149534	114
4	5978	123.097978284605	115
4	6033	124.438254246585	116
4	6040	124.48535351764	117
4	6096	125.827373258823	118
4	6122	126.308251483126	119
4	6166	127.502741426634	120
4	6172	127.631779929818	121
4	6194	127.908252646361	122
4	6211	128.167364902243	123
4	6337	131.182333174429	124
4	6353	131.658848995402	125
4	6447	133.04030807525	126
4	6466	133.738245624081	127
4	6503	134.53346782539	128
4	6643	137.350379555355	129
4	6650	137.491124710784	130
4	6686	137.966464380426	131
4	6821	141.191780464143	132
4	6835	141.508757844029	133
4	7013	145.017821395033	134
4	7099	147.218150715477	135
4	7152	148.457848796093	136
4	7269	150.57175561074	137
4	7311	151.092534475611	138
4	7314	151.101082494256	139
4	7326	151.428292875582	140
4	7336	151.55125544247	141
4	7372	152.411970149984	142
4	7431	153.526581152983	143
4	7593	157.10508287882	144
4	7623	157.886967301924	145
4	7704	159.53032053713	146
4	7747	160.49482029889	147
4	7780	161.28150341435	148
4	7817	161.980106981296	149
4	7840	162.761275771284	150
4	7934	164.532629090604	151
4	7954	164.889345343277	152
4	8062	167.063578250411	153
4	8069	167.143148405504	154
4	8130	168.335400647586	155
4	8140	168.539186029795	156
4	8176	169.10969201787	157
4	8222	170.365687616643	158
4	8225	170.368791973452	159
4	8244	170.818505341398	160
4	8247	170.823708474205	161
4	8434	174.712353196975	162
4	8467	175.277608478286	163
4	8473	175.420831749767	164
4	8483	175.522647391744	165
4	8501	175.943315064144	166
4	8529	176.837420952269	167
4	8568	177.343684919351	168
4	8596	177.938150936049	169
4	8647	179.053017790119	170
4	8725	181.258418593921	171
4	8744	181.667136248155	172
4	8747	181.689063628845	173
4	8779	181.966005854173	174
4	8802	182.704142596721	175
4	8841	183.27203028984	176
4	8884	184.162884091731	177
4	8890	184.216821048149	178
4	8921	185.123684155455	179
4	9117	189.223618448125	180
4	9136	189.859668919249	181
4	9176	190.569739264905	182
4	9182	190.675053684107	183
4	9185	190.715511639768	184
4	9191	190.840299162127	185
4	9221	191.156726553315	186
4	9231	191.673893480386	187
4	9270	192.184406056322	188
4	9374	194.127606612649	189
4	9423	195.241721349115	190
4	9439	195.760975073996	191
4	9475	196.148172541237	192
4	9539	197.48474095856	193
4	9549	197.593772822182	194
4	9635	199.612436582109	195
5	0	0	0
6	0	0	0
6	5	0.485128163722	1
6	9	0.543512832815	2
6	128	3.858425112743	3
6	151	4.009655966408	4
6	232	6.04997022435	5
6	251	6.78493464554	6
6	303	7.806366519889	7
6	342	8.341932240117	8
6	413	9.677222424741	9
6	561	12.555137446019	10
6	613	13.49119900579	11
6	769	16.684145647844	12
6	901	19.671335539696	13
6	907	19.72866246612	14
6	937	20.328609352761	15
6	940	20.348799480907	16
6	943	20.388775779965	17
6	979	20.971654168832	18
6	989	21.417073630752	19
6	1031	22.072719915116	20
6	1143	24.576631698201	21
6	1161	24.90197211373	22
6	1164	24.911372864394	23
6	1215	26.012218774485	24
6	1308	27.853501245972	25
6	1479	31.128644423687	26
6	1535	32.585462982251	27
6	1561	32.961201824658	28
6	1718	36.325572277709	29
6	1770	37.28794733348	30
6	1822	38.131835806071	31
6	1883	39.187685414731	32
6	1893	39.489251327954	33
6	1923	40.2593281875	34
6	1936	40.853401685824	35
6	2067	43.372683815907	36
6	2162	45.374670311433	37
6	2224	46.655004515245	38
6	2247	47.101257335764	39
6	2395	49.985869087866	40
6	2419	50.893833115191	41
6	2458	51.587032884729	42
6	2461	51.858700955071	43
6	2703	56.737833843065	44
6	2798	58.866503937596	45
6	2837	59.471085155931	46
6	2890	60.725288426022	47
6	2899	60.872884458913	48
6	2968	62.293267914498	49
6	2979	62.685840942686	50
6	3070	64.46398427952	51
6	3126	65.627097562945	52
6	3141	65.920049021432	53
6	3162	66.296478372953	54
6	3198	67.026706038192	55
6	3211	67.259231056577	56
6	3276	68.570203424737	57
6	3279	68.69523601466	58
6	3334	69.818696514208	59
6	3389	70.652074754854	60
6	3456	71.932499108833	61
6	3467	72.019607692091	62
6	3529	73.402924158242	63
6	3594	74.533842637431	64